% Model:              Yoke ima Lab _ Vitor -V5.mph
% Version:            COMSOL 5.3.0.260
% Date:               Feb 4 2020, 17:30
% Dimension:          2
% Nodes:              451
% Expressions:        1
% Description:        Magnetic flux density norm
% Length unit:        m
% R                       Z                        mf2.normB (T)
0                         0                        0.15635103682154114
1                         0                        0.15426515971448232
2                         0                        0.15991375753666304
3                         0                        0.16520064543370355
4                         0                        0.1711304713151613
5                         0                        0.17782745211556164
6                         0                        0.18526899077175957
7                         0                        0.19339409299624954
8                         0                        0.21086552516159232
9                         0                        0.2448142537647326
10                        0                        0.28340933478004393
11                        0                        0.32498606243577616
12                        0                        0.3685287504494657
13                        0                        0.41341180424636537
14                        0                        0.4592392788515809
15                        0                        1.016947948617101
16                        0                        1.0069066703293292
17                        0                        1.0030326699393728
18                        0                        1.0062804161092944
19                        0                        1.0174542634654942
20                        0                        1.0371106189709136
21                        0                        1.0655105482843805
22                        0                        1.1026203671109884
23                        0                        1.1481511108222
24                        0                        1.201621546494954
25                        0                        1.1554614122973217
26                        0                        0.8630300491169486
27                        0                        0.8079120282195448
28                        0                        0.752359802249668
29                        0                        0.6963724560340651
30                        0                        0.6399582692104696
31                        0                        0.5831330081145728
32                        0                        0.5259193701400008
33                        0                        0.4683478166688026
34                        0                        0.4104595690587003
35                        0                        0.3932652820675863
36                        0                        0.37782620402487344
37                        0                        0.36222956836857567
38                        0                        0.3464833585895829
39                        0                        0.33059776199987034
40                        0                        0.3145851331257958
0                         -1                       0.15835151976640158
1                         -1                       0.14351177809774887
2                         -1                       0.13698746850398216
3                         -1                       0.14062320077003723
4                         -1                       0.14591106615210792
5                         -1                       0.1524460298811337
6                         -1                       0.1600017444645906
7                         -1                       0.1684110138990948
8                         -1                       0.1694378797488245
9                         -1                       0.17189321873451668
10                        -1                       0.2119429585214843
11                        -1                       0.2555249670408884
12                        -1                       0.30105355231613856
13                        -1                       0.34773350619711996
14                        -1                       0.5723280506346196
15                        -1                       0.5991660067159046
16                        -1                       0.8908124503485938
17                        -1                       0.8828011384773865
18                        -1                       0.8844979188026744
19                        -1                       0.8967440636978435
20                        -1                       0.9199313850774293
21                        -1                       0.9539767404662134
22                        -1                       0.9983845484192932
23                        -1                       1.0523653641871253
24                        -1                       1.148196052071116
25                        -1                       1.0562115950787558
26                        -1                       0.830841162155327
27                        -1                       0.7749653674220637
28                        -1                       0.7186965091289573
29                        -1                       0.6620542512719397
30                        -1                       0.605069765711391
31                        -1                       0.5477871627264469
32                        -1                       0.4902677901520451
33                        -1                       0.43259944264107836
34                        -1                       0.42850377870186657
35                        -1                       0.40048812060992817
36                        -1                       0.37770115451650005
37                        -1                       0.36195072973345915
38                        -1                       0.34606850659700267
39                        -1                       0.33006817540139843
40                        -1                       0.3139658845645596
0                         -2                       0.14191158149442412
1                         -2                       0.12470257342480691
2                         -2                       0.12294601835552416
3                         -2                       0.11748116251204213
4                         -2                       0.12180383959566582
5                         -2                       0.12806271805427608
6                         -2                       0.13572562155805082
7                         -2                       0.1436827118152591
8                         -2                       0.14352642461769974
9                         -2                       0.10522421937760933
10                        -2                       0.14916457023489985
11                        -2                       0.19599194497561484
12                        -2                       0.24396060889877716
13                        -2                       0.3999088815657158
14                        -2                       0.42953186394286463
15                        -2                       0.46431463348803004
16                        -2                       0.6346734910458943
17                        -2                       0.7610627576775564
18                        -2                       0.7631028399697445
19                        -2                       0.7789768087463682
20                        -2                       0.8086753004367505
21                        -2                       0.851440601158385
22                        -2                       0.9060007977651778
23                        -2                       0.9891282871447196
24                        -2                       1.0121104506697405
25                        -2                       0.9576081005680723
26                        -2                       0.9042486405492339
27                        -2                       0.7424913882346402
28                        -2                       0.6857485171791787
29                        -2                       0.6287522028425833
30                        -2                       0.57157343437583
31                        -2                       0.5143109848211341
32                        -2                       0.4571066831521783
33                        -2                       0.45382647337171883
34                        -2                       0.42882801792607955
35                        -2                       0.40206536415570954
36                        -2                       0.3833153490423886
37                        -2                       0.3617741249322033
38                        -2                       0.3457833787496143
39                        -2                       0.3296996170514695
40                        -2                       0.3135431743564654
0                         -3                       0.12547400214547982
1                         -3                       0.10669792965693091
2                         -3                       0.1058194403905465
3                         -3                       0.10189855782236826
4                         -3                       0.09882535475465783
5                         -3                       0.10475493495721548
6                         -3                       0.1125922238860325
7                         -3                       0.11796957283404315
8                         -3                       0.12038402213001817
9                         -3                       0.1269378446519496
10                        -3                       0.10407767793239128
11                        -3                       0.1535194434118546
12                        -3                       0.22784661578330814
13                        -3                       0.262310288774758
14                        -3                       0.30316924341161666
15                        -3                       0.3486765815051193
16                        -3                       0.4934568623965078
17                        -3                       0.5092865800255455
18                        -3                       0.6440669323473412
19                        -3                       0.6674002072269528
20                        -3                       0.7077224315762435
21                        -3                       0.7629892971641198
22                        -3                       0.8351264919078741
23                        -3                       0.8540708808846973
24                        -3                       0.8796640406650804
25                        -3                       0.860002989696646
26                        -3                       0.8058536744863896
27                        -3                       0.7535002628619915
28                        -3                       0.6537693786559937
29                        -3                       0.5968039858147031
30                        -3                       0.5399212147079592
31                        -3                       0.4833154738584877
32                        -3                       0.48102638786301044
33                        -3                       0.455241577833558
34                        -3                       0.42967685701373415
35                        -3                       0.40382817602620613
36                        -3                       0.38485117476767006
37                        -3                       0.3658473132064407
38                        -3                       0.3456268337443027
39                        -3                       0.3294909887930129
40                        -3                       0.3133159777954338
0                         -4                       0.10903984853618903
1                         -4                       0.08949872457386233
2                         -4                       0.08912888286484204
3                         -4                       0.08562334033987276
4                         -4                       0.08223490208640015
5                         -4                       0.08267543978308825
6                         -4                       0.09358091425600387
7                         -4                       0.09499950523449996
8                         -4                       0.101555594160967
9                         -4                       0.11313680251319702
10                        -4                       0.12882200284361417
11                        -4                       0.06077731334933028
12                        -4                       0.10955880911741449
13                        -4                       0.16212872869694472
14                        -4                       0.21669224559076491
15                        -4                       0.2726305627623157
16                        -4                       0.3690817051999024
17                        -4                       0.4107397985742478
18                        -4                       0.4714940787854356
19                        -4                       0.5677142465428743
20                        -4                       0.623932251756604
21                        -4                       0.6893665882511462
22                        -4                       0.7017980946507023
23                        -4                       0.7222646010833526
24                        -4                       0.751174928974103
25                        -4                       0.7639880565524654
26                        -4                       0.7088450942322
27                        -4                       0.655159987253291
28                        -4                       0.6034981588851744
29                        -4                       0.5666202497218523
30                        -4                       0.5106652827646148
31                        -4                       0.5095567875368736
32                        -4                       0.4832403545436484
33                        -4                       0.4570638274077489
34                        -4                       0.43103773652835053
35                        -4                       0.40576922727919995
36                        -4                       0.3866127697035339
37                        -4                       0.36742459588039866
38                        -4                       0.3482036747867735
39                        -4                       0.329440961533877
40                        -4                       0.31328290570516176
0                         -5                       0.09261094441491277
1                         -5                       0.07310653720657545
2                         -5                       0.0728959379687582
3                         -5                       0.06980323194350475
4                         -5                       0.0671493204168797
5                         -5                       0.06578077961525373
6                         -5                       0.08369157163058476
7                         -5                       0.07771331642518238
8                         -5                       0.0731785620416017
9                         -5                       0.07113231599268181
10                        -5                       0.07225996222685283
11                        -5                       0.07120621594526735
12                        -5                       0.09745154949717137
13                        -5                       0.1427841516727865
14                        -5                       0.19591881187784102
15                        -5                       0.26805704099636507
16                        -5                       0.2934903450385221
17                        -5                       0.37051607161747413
18                        -5                       0.4575615061757979
19                        -5                       0.5498750675798163
20                        -5                       0.558086540134706
21                        -5                       0.559730345580798
22                        -5                       0.571377420128761
23                        -5                       0.5938717283608838
24                        -5                       0.627230544577663
25                        -5                       0.6705568432671176
26                        -5                       0.614264594368822
27                        -5                       0.5589646230340279
28                        -5                       0.5052369654956841
29                        -5                       0.5335123442960661
30                        -5                       0.5156124972061519
31                        -5                       0.4948805133834386
32                        -5                       0.48575754800374954
33                        -5                       0.45928004838643055
34                        -5                       0.4328964699598665
35                        -5                       0.4078811397719017
36                        -5                       0.3885915934929756
37                        -5                       0.36591664328918866
38                        -5                       0.34989268204766116
39                        -5                       0.33383942542801
40                        -5                       0.31784980576488253
0                         -6                       0.0761906856793199
1                         -6                       0.05752447477279443
2                         -6                       0.057164541308775414
3                         -6                       0.05459253643985925
4                         -6                       0.05303879454966883
5                         -6                       0.05270409173164212
6                         -6                       0.05364865924824876
7                         -6                       0.06010958273761857
8                         -6                       0.05650314170068158
9                         -6                       0.05595184817527139
10                        -6                       0.059178045046792
11                        -6                       0.05451802579474744
12                        -6                       0.08402870245651506
13                        -6                       0.13178308185989385
14                        -6                       0.18593510829914797
15                        -6                       0.18242245084861325
16                        -6                       0.2147248698288293
17                        -6                       0.2714577780884082
18                        -6                       0.3330539325859042
19                        -6                       0.39729349991926916
20                        -6                       0.49581332898153135
21                        -6                       0.5038197805562712
22                        -6                       0.5236032152278807
23                        -6                       0.5553249936758442
24                        -6                       0.5982366023998954
25                        -6                       0.5939613746161801
26                        -6                       0.5936519844561927
27                        -6                       0.5687946031834269
28                        -6                       0.5461017124749638
29                        -6                       0.5261182243642921
30                        -6                       0.5082693072187178
31                        -6                       0.4874567767105627
32                        -6                       0.46669389643474973
33                        -6                       0.44598039544164647
34                        -6                       0.4214080737313977
35                        -6                       0.40389669918100013
36                        -6                       0.3819882842256653
37                        -6                       0.3659218349065044
38                        -6                       0.3498319845886574
39                        -6                       0.333721262108107
40                        -6                       0.3178491092887259
0                         -7                       0.05978619611067112
1                         -7                       0.04275951382953848
2                         -7                       0.042038998629191325
3                         -7                       0.040360534004065585
4                         -7                       0.03996918138299353
5                         -7                       0.04116056836059785
6                         -7                       0.04282426618154014
7                         -7                       0.04475376699197574
8                         -7                       0.04066127590965299
9                         -7                       0.04188921777535062
10                        -7                       0.047736920771564856
11                        -7                       0.03729543356631063
12                        -7                       0.0709533782007942
13                        -7                       0.12108873702382382
14                        -7                       0.13212795278739192
15                        -7                       0.15079502871598757
16                        -7                       0.17552440629937072
17                        -7                       0.2162553022093441
18                        -7                       0.28032262957106086
19                        -7                       0.3461549695488273
20                        -7                       0.4408433673217631
21                        -7                       0.4586449573959432
22                        -7                       0.48979767319240236
23                        -7                       0.5333296551758699
24                        -7                       0.5423037923301387
25                        -7                       0.5548583590454849
26                        -7                       0.5674428145946931
27                        -7                       0.561126974637637
28                        -7                       0.5386493402052517
29                        -7                       0.5187251838349534
30                        -7                       0.5009520681171671
31                        -7                       0.48007869768844247
32                        -7                       0.45923330332623935
33                        -7                       0.43805076422155176
34                        -7                       0.42042297642362575
35                        -7                       0.40281577957577724
36                        -7                       0.3852295441292897
37                        -7                       0.366032684434484
38                        -7                       0.34990697250668906
39                        -7                       0.3337729042572296
40                        -7                       0.3179356424238358
0                         -8                       0.043415354527150556
1                         -8                       0.028830984210269573
2                         -8                       0.02783311126417657
3                         -8                       0.027322830798423115
4                         -8                       0.028866658066351667
5                         -8                       0.03083658634618852
6                         -8                       0.03301595148711912
7                         -8                       0.035314507179834094
8                         -8                       0.03768782454242566
9                         -8                       0.029339141064053973
10                        -8                       0.03860647008590118
11                        -8                       0.019462357187486623
12                        -8                       0.058944916350025786
13                        -8                       0.08431454449134966
14                        -8                       0.10215818773382683
15                        -8                       0.12894588563112105
16                        -8                       0.16027421343283438
17                        -8                       0.1939725125847831
18                        -8                       0.2388397514746695
19                        -8                       0.3056136388385013
20                        -8                       0.3942939900487501
21                        -8                       0.4244900241942942
22                        -8                       0.4686304374808934
23                        -8                       0.4919460067406973
24                        -8                       0.5046862398986302
25                        -8                       0.5174423902339554
26                        -8                       0.5302125429014274
27                        -8                       0.5429950807726205
28                        -8                       0.531217837131607
29                        -8                       0.51133366646147
30                        -8                       0.4936679655205703
31                        -8                       0.4727563218119002
32                        -8                       0.45488429421684123
33                        -8                       0.43718997095226775
34                        -8                       0.4195049113115229
35                        -8                       0.4018290687294134
36                        -8                       0.3841626152412589
37                        -8                       0.36650595081708276
38                        -8                       0.35011667647738975
39                        -8                       0.33399328684272644
40                        -8                       0.3181087678613838
0                         -9                       0.027139120735362232
1                         -9                       0.015818115905627875
2                         -9                       0.014912378074768948
3                         -9                       0.016983188394912085
4                         -9                       0.019326397171576647
5                         -9                       0.02177588651513409
6                         -9                       0.024278363920396773
7                         -9                       0.02681130929343969
8                         -9                       0.029363486484165667
9                         -9                       0.03192862833475803
10                        -9                       0.03298085002727141
11                        -9                       0.001034123466241088
12                        -9                       0.04016799623682364
13                        -9                       0.057300459125049594
14                        -9                       0.08871289743560287
15                        -9                       0.12399639245634884
16                        -9                       0.16062564572948182
17                        -9                       0.19785922253083152
18                        -9                       0.2354141033558532
19                        -9                       0.2803144211422974
20                        -9                       0.3594553715105946
21                        -9                       0.4041617788864283
22                        -9                       0.4431865731423036
23                        -9                       0.4560628779819365
24                        -9                       0.4689440912165189
25                        -9                       0.48182960320113366
26                        -9                       0.49471890214389547
27                        -9                       0.5076115551431462
28                        -9                       0.5205071934780138
29                        -9                       0.50394452903463
30                        -9                       0.48642497219664427
31                        -9                       0.4718200049600123
32                        -9                       0.45409600054826316
33                        -9                       0.4363744124145784
34                        -9                       0.4186551715403885
35                        -9                       0.40093826453377623
36                        -9                       0.38322373337683274
37                        -9                       0.36551167786162514
38                        -9                       0.34780226103573336
39                        -9                       0.3343810930415213
40                        -9                       0.3183677799245712
0                         -10                      0.0012890530631407054
1                         -10                      0.0037942658037033736
2                         -10                      0.006385115711219554
3                         -10                      0.00898912102874143
4                         -10                      0.011597289875981397
5                         -10                      0.014207307716673048
6                         -10                      0.016818307644615525
7                         -10                      0.01942989148478556
8                         -10                      0.022041850692612528
9                         -10                      0.024654065470454248